# vtk DataFile Version 3.0
#This file was generated by the deal.II library on 2023/7/10 at 18:53:01
ASCII
DATASET UNSTRUCTURED_GRID

POINTS 4096 double
-1 -1 0
-0.9375 -1 0
-1 -0.9375 0
-0.9375 -0.9375 0
-0.9375 -1 0
-0.875 -1 0
-0.9375 -0.9375 0
-0.875 -0.9375 0
-1 -0.9375 0
-0.9375 -0.9375 0
-1 -0.875 0
-0.9375 -0.875 0
-0.9375 -0.9375 0
-0.875 -0.9375 0
-0.9375 -0.875 0
-0.875 -0.875 0
-0.875 -1 0
-0.8125 -1 0
-0.875 -0.9375 0
-0.8125 -0.9375 0
-0.8125 -1 0
-0.75 -1 0
-0.8125 -0.9375 0
-0.75 -0.9375 0
-0.875 -0.9375 0
-0.8125 -0.9375 0
-0.875 -0.875 0
-0.8125 -0.875 0
-0.8125 -0.9375 0
-0.75 -0.9375 0
-0.8125 -0.875 0
-0.75 -0.875 0
-1 -0.875 0
-0.9375 -0.875 0
-1 -0.8125 0
-0.9375 -0.8125 0
-0.9375 -0.875 0
-0.875 -0.875 0
-0.9375 -0.8125 0
-0.875 -0.8125 0
-1 -0.8125 0
-0.9375 -0.8125 0
-1 -0.75 0
-0.9375 -0.75 0
-0.9375 -0.8125 0
-0.875 -0.8125 0
-0.9375 -0.75 0
-0.875 -0.75 0
-0.875 -0.875 0
-0.8125 -0.875 0
-0.875 -0.8125 0
-0.8125 -0.8125 0
-0.8125 -0.875 0
-0.75 -0.875 0
-0.8125 -0.8125 0
-0.75 -0.8125 0
-0.875 -0.8125 0
-0.8125 -0.8125 0
-0.875 -0.75 0
-0.8125 -0.75 0
-0.8125 -0.8125 0
-0.75 -0.8125 0
-0.8125 -0.75 0
-0.75 -0.75 0
-0.75 -1 0
-0.6875 -1 0
-0.75 -0.9375 0
-0.6875 -0.9375 0
-0.6875 -1 0
-0.625 -1 0
-0.6875 -0.9375 0
-0.625 -0.9375 0
-0.75 -0.9375 0
-0.6875 -0.9375 0
-0.75 -0.875 0
-0.6875 -0.875 0
-0.6875 -0.9375 0
-0.625 -0.9375 0
-0.6875 -0.875 0
-0.625 -0.875 0
-0.625 -1 0
-0.5625 -1 0
-0.625 -0.9375 0
-0.5625 -0.9375 0
-0.5625 -1 0
-0.5 -1 0
-0.5625 -0.9375 0
-0.5 -0.9375 0
-0.625 -0.9375 0
-0.5625 -0.9375 0
-0.625 -0.875 0
-0.5625 -0.875 0
-0.5625 -0.9375 0
-0.5 -0.9375 0
-0.5625 -0.875 0
-0.5 -0.875 0
-0.75 -0.875 0
-0.6875 -0.875 0
-0.75 -0.8125 0
-0.6875 -0.8125 0
-0.6875 -0.875 0
-0.625 -0.875 0
-0.6875 -0.8125 0
-0.625 -0.8125 0
-0.75 -0.8125 0
-0.6875 -0.8125 0
-0.75 -0.75 0
-0.6875 -0.75 0
-0.6875 -0.8125 0
-0.625 -0.8125 0
-0.6875 -0.75 0
-0.625 -0.75 0
-0.625 -0.875 0
-0.5625 -0.875 0
-0.625 -0.8125 0
-0.5625 -0.8125 0
-0.5625 -0.875 0
-0.5 -0.875 0
-0.5625 -0.8125 0
-0.5 -0.8125 0
-0.625 -0.8125 0
-0.5625 -0.8125 0
-0.625 -0.75 0
-0.5625 -0.75 0
-0.5625 -0.8125 0
-0.5 -0.8125 0
-0.5625 -0.75 0
-0.5 -0.75 0
-1 -0.75 0
-0.9375 -0.75 0
-1 -0.6875 0
-0.9375 -0.6875 0
-0.9375 -0.75 0
-0.875 -0.75 0
-0.9375 -0.6875 0
-0.875 -0.6875 0
-1 -0.6875 0
-0.9375 -0.6875 0
-1 -0.625 0
-0.9375 -0.625 0
-0.9375 -0.6875 0
-0.875 -0.6875 0
-0.9375 -0.625 0
-0.875 -0.625 0
-0.875 -0.75 0
-0.8125 -0.75 0
-0.875 -0.6875 0
-0.8125 -0.6875 0
-0.8125 -0.75 0
-0.75 -0.75 0
-0.8125 -0.6875 0
-0.75 -0.6875 0
-0.875 -0.6875 0
-0.8125 -0.6875 0
-0.875 -0.625 0
-0.8125 -0.625 0
-0.8125 -0.6875 0
-0.75 -0.6875 0
-0.8125 -0.625 0
-0.75 -0.625 0
-1 -0.625 0
-0.9375 -0.625 0
-1 -0.5625 0
-0.9375 -0.5625 0
-0.9375 -0.625 0
-0.875 -0.625 0
-0.9375 -0.5625 0
-0.875 -0.5625 0
-1 -0.5625 0
-0.9375 -0.5625 0
-1 -0.5 0
-0.9375 -0.5 0
-0.9375 -0.5625 0
-0.875 -0.5625 0
-0.9375 -0.5 0
-0.875 -0.5 0
-0.875 -0.625 0
-0.8125 -0.625 0
-0.875 -0.5625 0
-0.8125 -0.5625 0
-0.8125 -0.625 0
-0.75 -0.625 0
-0.8125 -0.5625 0
-0.75 -0.5625 0
-0.875 -0.5625 0
-0.8125 -0.5625 0
-0.875 -0.5 0
-0.8125 -0.5 0
-0.8125 -0.5625 0
-0.75 -0.5625 0
-0.8125 -0.5 0
-0.75 -0.5 0
-0.75 -0.75 0
-0.6875 -0.75 0
-0.75 -0.6875 0
-0.6875 -0.6875 0
-0.6875 -0.75 0
-0.625 -0.75 0
-0.6875 -0.6875 0
-0.625 -0.6875 0
-0.75 -0.6875 0
-0.6875 -0.6875 0
-0.75 -0.625 0
-0.6875 -0.625 0
-0.6875 -0.6875 0
-0.625 -0.6875 0
-0.6875 -0.625 0
-0.625 -0.625 0
-0.625 -0.75 0
-0.5625 -0.75 0
-0.625 -0.6875 0
-0.5625 -0.6875 0
-0.5625 -0.75 0
-0.5 -0.75 0
-0.5625 -0.6875 0
-0.5 -0.6875 0
-0.625 -0.6875 0
-0.5625 -0.6875 0
-0.625 -0.625 0
-0.5625 -0.625 0
-0.5625 -0.6875 0
-0.5 -0.6875 0
-0.5625 -0.625 0
-0.5 -0.625 0
-0.75 -0.625 0
-0.6875 -0.625 0
-0.75 -0.5625 0
-0.6875 -0.5625 0
-0.6875 -0.625 0
-0.625 -0.625 0
-0.6875 -0.5625 0
-0.625 -0.5625 0
-0.75 -0.5625 0
-0.6875 -0.5625 0
-0.75 -0.5 0
-0.6875 -0.5 0
-0.6875 -0.5625 0
-0.625 -0.5625 0
-0.6875 -0.5 0
-0.625 -0.5 0
-0.625 -0.625 0
-0.5625 -0.625 0
-0.625 -0.5625 0
-0.5625 -0.5625 0
-0.5625 -0.625 0
-0.5 -0.625 0
-0.5625 -0.5625 0
-0.5 -0.5625 0
-0.625 -0.5625 0
-0.5625 -0.5625 0
-0.625 -0.5 0
-0.5625 -0.5 0
-0.5625 -0.5625 0
-0.5 -0.5625 0
-0.5625 -0.5 0
-0.5 -0.5 0
-0.5 -1 0
-0.4375 -1 0
-0.5 -0.9375 0
-0.4375 -0.9375 0
-0.4375 -1 0
-0.375 -1 0
-0.4375 -0.9375 0
-0.375 -0.9375 0
-0.5 -0.9375 0
-0.4375 -0.9375 0
-0.5 -0.875 0
-0.4375 -0.875 0
-0.4375 -0.9375 0
-0.375 -0.9375 0
-0.4375 -0.875 0
-0.375 -0.875 0
-0.375 -1 0
-0.3125 -1 0
-0.375 -0.9375 0
-0.3125 -0.9375 0
-0.3125 -1 0
-0.25 -1 0
-0.3125 -0.9375 0
-0.25 -0.9375 0
-0.375 -0.9375 0
-0.3125 -0.9375 0
-0.375 -0.875 0
-0.3125 -0.875 0
-0.3125 -0.9375 0
-0.25 -0.9375 0
-0.3125 -0.875 0
-0.25 -0.875 0
-0.5 -0.875 0
-0.4375 -0.875 0
-0.5 -0.8125 0
-0.4375 -0.8125 0
-0.4375 -0.875 0
-0.375 -0.875 0
-0.4375 -0.8125 0
-0.375 -0.8125 0
-0.5 -0.8125 0
-0.4375 -0.8125 0
-0.5 -0.75 0
-0.4375 -0.75 0
-0.4375 -0.8125 0
-0.375 -0.8125 0
-0.4375 -0.75 0
-0.375 -0.75 0
-0.375 -0.875 0
-0.3125 -0.875 0
-0.375 -0.8125 0
-0.3125 -0.8125 0
-0.3125 -0.875 0
-0.25 -0.875 0
-0.3125 -0.8125 0
-0.25 -0.8125 0
-0.375 -0.8125 0
-0.3125 -0.8125 0
-0.375 -0.75 0
-0.3125 -0.75 0
-0.3125 -0.8125 0
-0.25 -0.8125 0
-0.3125 -0.75 0
-0.25 -0.75 0
-0.25 -1 0
-0.1875 -1 0
-0.25 -0.9375 0
-0.1875 -0.9375 0
-0.1875 -1 0
-0.125 -1 0
-0.1875 -0.9375 0
-0.125 -0.9375 0
-0.25 -0.9375 0
-0.1875 -0.9375 0
-0.25 -0.875 0
-0.1875 -0.875 0
-0.1875 -0.9375 0
-0.125 -0.9375 0
-0.1875 -0.875 0
-0.125 -0.875 0
-0.125 -1 0
-0.0625 -1 0
-0.125 -0.9375 0
-0.0625 -0.9375 0
-0.0625 -1 0
0 -1 0
-0.0625 -0.9375 0
0 -0.9375 0
-0.125 -0.9375 0
-0.0625 -0.9375 0
-0.125 -0.875 0
-0.0625 -0.875 0
-0.0625 -0.9375 0
0 -0.9375 0
-0.0625 -0.875 0
0 -0.875 0
-0.25 -0.875 0
-0.1875 -0.875 0
-0.25 -0.8125 0
-0.1875 -0.8125 0
-0.1875 -0.875 0
-0.125 -0.875 0
-0.1875 -0.8125 0
-0.125 -0.8125 0
-0.25 -0.8125 0
-0.1875 -0.8125 0
-0.25 -0.75 0
-0.1875 -0.75 0
-0.1875 -0.8125 0
-0.125 -0.8125 0
-0.1875 -0.75 0
-0.125 -0.75 0
-0.125 -0.875 0
-0.0625 -0.875 0
-0.125 -0.8125 0
-0.0625 -0.8125 0
-0.0625 -0.875 0
0 -0.875 0
-0.0625 -0.8125 0
0 -0.8125 0
-0.125 -0.8125 0
-0.0625 -0.8125 0
-0.125 -0.75 0
-0.0625 -0.75 0
-0.0625 -0.8125 0
0 -0.8125 0
-0.0625 -0.75 0
0 -0.75 0
-0.5 -0.75 0
-0.4375 -0.75 0
-0.5 -0.6875 0
-0.4375 -0.6875 0
-0.4375 -0.75 0
-0.375 -0.75 0
-0.4375 -0.6875 0
-0.375 -0.6875 0
-0.5 -0.6875 0
-0.4375 -0.6875 0
-0.5 -0.625 0
-0.4375 -0.625 0
-0.4375 -0.6875 0
-0.375 -0.6875 0
-0.4375 -0.625 0
-0.375 -0.625 0
-0.375 -0.75 0
-0.3125 -0.75 0
-0.375 -0.6875 0
-0.3125 -0.6875 0
-0.3125 -0.75 0
-0.25 -0.75 0
-0.3125 -0.6875 0
-0.25 -0.6875 0
-0.375 -0.6875 0
-0.3125 -0.6875 0
-0.375 -0.625 0
-0.3125 -0.625 0
-0.3125 -0.6875 0
-0.25 -0.6875 0
-0.3125 -0.625 0
-0.25 -0.625 0
-0.5 -0.625 0
-0.4375 -0.625 0
-0.5 -0.5625 0
-0.4375 -0.5625 0
-0.4375 -0.625 0
-0.375 -0.625 0
-0.4375 -0.5625 0
-0.375 -0.5625 0
-0.5 -0.5625 0
-0.4375 -0.5625 0
-0.5 -0.5 0
-0.4375 -0.5 0
-0.4375 -0.5625 0
-0.375 -0.5625 0
-0.4375 -0.5 0
-0.375 -0.5 0
-0.375 -0.625 0
-0.3125 -0.625 0
-0.375 -0.5625 0
-0.3125 -0.5625 0
-0.3125 -0.625 0
-0.25 -0.625 0
-0.3125 -0.5625 0
-0.25 -0.5625 0
-0.375 -0.5625 0
-0.3125 -0.5625 0
-0.375 -0.5 0
-0.3125 -0.5 0
-0.3125 -0.5625 0
-0.25 -0.5625 0
-0.3125 -0.5 0
-0.25 -0.5 0
-0.25 -0.75 0
-0.1875 -0.75 0
-0.25 -0.6875 0
-0.1875 -0.6875 0
-0.1875 -0.75 0
-0.125 -0.75 0
-0.1875 -0.6875 0
-0.125 -0.6875 0
-0.25 -0.6875 0
-0.1875 -0.6875 0
-0.25 -0.625 0
-0.1875 -0.625 0
-0.1875 -0.6875 0
-0.125 -0.6875 0
-0.1875 -0.625 0
-0.125 -0.625 0
-0.125 -0.75 0
-0.0625 -0.75 0
-0.125 -0.6875 0
-0.0625 -0.6875 0
-0.0625 -0.75 0
0 -0.75 0
-0.0625 -0.6875 0
0 -0.6875 0
-0.125 -0.6875 0
-0.0625 -0.6875 0
-0.125 -0.625 0
-0.0625 -0.625 0
-0.0625 -0.6875 0
0 -0.6875 0
-0.0625 -0.625 0
0 -0.625 0
-0.25 -0.625 0
-0.1875 -0.625 0
-0.25 -0.5625 0
-0.1875 -0.5625 0
-0.1875 -0.625 0
-0.125 -0.625 0
-0.1875 -0.5625 0
-0.125 -0.5625 0
-0.25 -0.5625 0
-0.1875 -0.5625 0
-0.25 -0.5 0
-0.1875 -0.5 0
-0.1875 -0.5625 0
-0.125 -0.5625 0
-0.1875 -0.5 0
-0.125 -0.5 0
-0.125 -0.625 0
-0.0625 -0.625 0
-0.125 -0.5625 0
-0.0625 -0.5625 0
-0.0625 -0.625 0
0 -0.625 0
-0.0625 -0.5625 0
0 -0.5625 0
-0.125 -0.5625 0
-0.0625 -0.5625 0
-0.125 -0.5 0
-0.0625 -0.5 0
-0.0625 -0.5625 0
0 -0.5625 0
-0.0625 -0.5 0
0 -0.5 0
-1 -0.5 0
-0.9375 -0.5 0
-1 -0.4375 0
-0.9375 -0.4375 0
-0.9375 -0.5 0
-0.875 -0.5 0
-0.9375 -0.4375 0
-0.875 -0.4375 0
-1 -0.4375 0
-0.9375 -0.4375 0
-1 -0.375 0
-0.9375 -0.375 0
-0.9375 -0.4375 0
-0.875 -0.4375 0
-0.9375 -0.375 0
-0.875 -0.375 0
-0.875 -0.5 0
-0.8125 -0.5 0
-0.875 -0.4375 0
-0.8125 -0.4375 0
-0.8125 -0.5 0
-0.75 -0.5 0
-0.8125 -0.4375 0
-0.75 -0.4375 0
-0.875 -0.4375 0
-0.8125 -0.4375 0
-0.875 -0.375 0
-0.8125 -0.375 0
-0.8125 -0.4375 0
-0.75 -0.4375 0
-0.8125 -0.375 0
-0.75 -0.375 0
-1 -0.375 0
-0.9375 -0.375 0
-1 -0.3125 0
-0.9375 -0.3125 0
-0.9375 -0.375 0
-0.875 -0.375 0
-0.9375 -0.3125 0
-0.875 -0.3125 0
-1 -0.3125 0
-0.9375 -0.3125 0
-1 -0.25 0
-0.9375 -0.25 0
-0.9375 -0.3125 0
-0.875 -0.3125 0
-0.9375 -0.25 0
-0.875 -0.25 0
-0.875 -0.375 0
-0.8125 -0.375 0
-0.875 -0.3125 0
-0.8125 -0.3125 0
-0.8125 -0.375 0
-0.75 -0.375 0
-0.8125 -0.3125 0
-0.75 -0.3125 0
-0.875 -0.3125 0
-0.8125 -0.3125 0
-0.875 -0.25 0
-0.8125 -0.25 0
-0.8125 -0.3125 0
-0.75 -0.3125 0
-0.8125 -0.25 0
-0.75 -0.25 0
-0.75 -0.5 0
-0.6875 -0.5 0
-0.75 -0.4375 0
-0.6875 -0.4375 0
-0.6875 -0.5 0
-0.625 -0.5 0
-0.6875 -0.4375 0
-0.625 -0.4375 0
-0.75 -0.4375 0
-0.6875 -0.4375 0
-0.75 -0.375 0
-0.6875 -0.375 0
-0.6875 -0.4375 0
-0.625 -0.4375 0
-0.6875 -0.375 0
-0.625 -0.375 0
-0.625 -0.5 0
-0.5625 -0.5 0
-0.625 -0.4375 0
-0.5625 -0.4375 0
-0.5625 -0.5 0
-0.5 -0.5 0
-0.5625 -0.4375 0
-0.5 -0.4375 0
-0.625 -0.4375 0
-0.5625 -0.4375 0
-0.625 -0.375 0
-0.5625 -0.375 0
-0.5625 -0.4375 0
-0.5 -0.4375 0
-0.5625 -0.375 0
-0.5 -0.375 0
-0.75 -0.375 0
-0.6875 -0.375 0
-0.75 -0.3125 0
-0.6875 -0.3125 0
-0.6875 -0.375 0
-0.625 -0.375 0
-0.6875 -0.3125 0
[...]
POINT_DATA 4096
SCALARS solution double 1
LOOKUP_TABLE default
0 0 0.0561937 0.0561726 0 0 0.0561726 0.0561092 0.0561937 0.0561726 0.108523 0.108481 0.0561726 0.0561092 0.108481 0.108355 0 0 0.0561092 0.0560029 0 0 0.0560029 0.0558526 0.0561092 0.0560029 0.108355 0.108143 0.0560029 0.0558526 0.108143 0.107844 0.108523 0.108481 0.15703 0.156968 0.108481 0.108355 0.156968 0.15678 0.15703 0.156968 0.201755 0.201673 0.156968 0.15678 0.201673 0.201425 0.108355 0.108143 0.15678 0.156465 0.108143 0.107844 0.156465 0.15602 0.15678 0.156465 0.201425 0.20101 0.156465 0.15602 0.20101 0.200423 0 0 0.0558526 0.0556567 0 0 0.0556567 0.0554135 0.0558526 0.0556567 0.107844 0.107454 0.0556567 0.0554135 0.107454 0.10697 0 0 0.0554135 0.0551205 0 0 0.0551205 0.0547748 0.0554135 0.0551205 0.10697 0.106387 0.0551205 0.0547748 0.106387 0.105699 0.107844 0.107454 0.15602 0.15544 0.107454 0.10697 0.15544 0.15472 0.15602 0.15544 0.200423 0.199659 0.15544 0.15472 0.199659 0.19871 0.10697 0.106387 0.15472 0.153852 0.106387 0.105699 0.153852 0.152829 0.15472 0.153852 0.19871 0.197567 0.153852 0.152829 0.197567 0.196218 0.201755 0.201673 0.242737 0.242636 0.201673 0.201425 0.242636 0.242331 0.242737 0.242636 0.280015 0.279896 0.242636 0.242331 0.279896 0.279537 0.201425 0.20101 0.242331 0.24182 0.20101 0.200423 0.24182 0.241097 0.242331 0.24182 0.279537 0.278935 0.24182 0.241097 0.278935 0.278083 0.280015 0.279896 0.313625 0.313489 0.279896 0.279537 0.313489 0.313079 0.313625 0.313489 0.3436 0.343448 0.313489 0.313079 0.343448 0.342991 0.279537 0.278935 0.313079 0.312391 0.278935 0.278083 0.312391 0.311419 0.313079 0.312391 0.342991 0.342225 0.312391 0.311419 0.342225 0.341142 0.200423 0.199659 0.241097 0.240156 0.199659 0.19871 0.240156 0.238987 0.241097 0.240156 0.278083 0.276974 0.240156 0.238987 0.276974 0.275597 0.19871 0.197567 0.238987 0.237579 0.197567 0.196218 0.237579 0.235918 0.238987 0.237579 0.275597 0.273938 0.237579 0.235918 0.273938 0.271981 0.278083 0.276974 0.311419 0.310153 0.276974 0.275597 0.310153 0.308581 0.311419 0.310153 0.341142 0.339731 0.310153 0.308581 0.339731 0.33798 0.275597 0.273938 0.308581 0.306688 0.273938 0.271981 0.306688 0.304454 0.308581 0.306688 0.33798 0.33587 0.306688 0.304454 0.33587 0.333381 0 0 0.0547748 0.054373 0 0 0.054373 0.053911 0.0547748 0.054373 0.105699 0.1049 0.054373 0.053911 0.1049 0.10398 0 0 0.053911 0.0533843 0 0 0.0533843 0.0527874 0.053911 0.0533843 0.10398 0.102932 0.0533843 0.0527874 0.102932 0.101745 0.105699 0.1049 0.152829 0.151639 0.1049 0.10398 0.151639 0.150272 0.152829 0.151639 0.196218 0.19465 0.151639 0.150272 0.19465 0.192848 0.10398 0.102932 0.150272 0.148713 0.102932 0.101745 0.148713 0.146946 0.150272 0.148713 0.192848 0.190793 0.148713 0.146946 0.190793 0.188466 0 0 0.0527874 0.0521145 0 0 0.0521145 0.0513584 0.0527874 0.0521145 0.101745 0.100405 0.0521145 0.0513584 0.100405 0.0989012 0 0 0.0513584 0.0505115 0 0 0.0505115 0.0495646 0.0513584 0.0505115 0.0989012 0.0972162 0.0505115 0.0495646 0.0972162 0.0953326 0.101745 0.100405 0.146946 0.144955 0.100405 0.0989012 0.144955 0.142718 0.146946 0.144955 0.188466 0.185842 0.144955 0.142718 0.185842 0.182896 0.0989012 0.0972162 0.142718 0.140212 0.0972162 0.0953326 0.140212 0.137412 0.142718 0.140212 0.182896 0.179596 0.140212 0.137412 0.179596 0.175909 0.196218 0.19465 0.235918 0.233988 0.19465 0.192848 0.233988 0.231769 0.235918 0.233988 0.271981 0.269707 0.233988 0.231769 0.269707 0.267094 0.192848 0.190793 0.231769 0.22924 0.190793 0.188466 0.22924 0.226375 0.231769 0.22924 0.267094 0.264114 0.22924 0.226375 0.264114 0.26074 0.271981 0.269707 0.304454 0.301859 0.269707 0.267094 0.301859 0.298876 0.304454 0.301859 0.333381 0.33049 0.301859 0.298876 0.33049 0.327167 0.267094 0.264114 0.298876 0.295476 0.264114 0.26074 0.295476 0.291627 0.298876 0.295476 0.327167 0.323381 0.295476 0.291627 0.323381 0.319094 0.188466 0.185842 0.226375 0.223146 0.185842 0.182896 0.223146 0.219519 0.226375 0.223146 0.26074 0.256938 0.223146 0.219519 0.256938 0.252669 0.182896 0.179596 0.219519 0.215459 0.179596 0.175909 0.215459 0.210923 0.219519 0.215459 0.252669 0.24789 0.215459 0.210923 0.24789 0.242553 0.26074 0.256938 0.291627 0.287289 0.256938 0.252669 0.287289 0.28242 0.291627 0.287289 0.319094 0.314264 0.287289 0.28242 0.314264 0.308843 0.252669 0.24789 0.28242 0.276971 0.24789 0.242553 0.276971 0.270887 0.28242 0.276971 0.308843 0.302778 0.276971 0.270887 0.302778 0.296009 0.3436 0.343448 0.369971 0.369805 0.343448 0.342991 0.369805 0.369306 0.369971 0.369805 0.392767 0.392588 0.369805 0.369306 0.392588 0.392051 0.342991 0.342225 0.369306 0.368468 0.342225 0.341142 0.368468 0.367285 0.369306 0.368468 0.392051 0.391151 0.368468 0.367285 0.391151 0.389878 0.392767 0.392588 0.412011 0.411822 0.392588 0.392051 0.411822 0.411253 0.412011 0.411822 0.427727 0.427529 0.411822 0.411253 0.427529 0.426933 0.392051 0.391151 0.411253 0.410298 0.391151 0.389878 0.410298 0.408948 0.411253 0.410298 0.426933 0.425933 0.410298 0.408948 0.425933 0.424519 0.341142 0.339731 0.367285 0.365743 0.339731 0.33798 0.365743 0.363829 0.367285 0.365743 0.389878 0.38822 0.365743 0.363829 0.38822 0.386162 0.33798 0.33587 0.363829 0.361523 0.33587 0.333381 0.361523 0.358804 0.363829 0.361523 0.386162 0.383683 0.361523 0.358804 0.383683 0.380759 0.389878 0.38822 0.408948 0.40719 0.38822 0.386162 0.40719 0.405008 0.408948 0.40719 0.424519 0.422678 0.40719 0.405008 0.422678 0.420392 0.386162 0.383683 0.405008 0.402379 0.383683 0.380759 0.402379 0.399279 0.405008 0.402379 0.420392 0.417639 0.402379 0.399279 0.417639 0.414393 0.427727 0.427529 0.439932 0.439727 0.427529 0.426933 0.439727 0.439109 0.439932 0.439727 0.448639 0.448429 0.439727 0.439109 0.448429 0.447796 0.426933 0.425933 0.439109 0.438073 0.425933 0.424519 0.438073 0.436609 0.439109 0.438073 0.447796 0.446735 0.438073 0.436609 0.446735 0.445234 0.448639 0.448429 0.45386 0.453646 0.448429 0.447796 0.453646 0.453004 0.45386 0.453646 0.455599 0.455385 0.453646 0.453004 0.455385 0.454739 0.447796 0.446735 0.453004 0.451927 0.446735 0.445234 0.451927 0.450405 0.453004 0.451927 0.454739 0.453657 0.451927 0.450405 0.453657 0.452128 0.424519 0.422678 0.436609 0.434703 0.422678 0.420392 0.434703 0.432336 0.436609 0.434703 0.445234 0.443281 0.434703 0.432336 0.443281 0.440855 0.420392 0.417639 0.432336 0.429485 0.417639 0.414393 0.429485 0.426123 0.432336 0.429485 0.440855 0.437934 0.429485 0.426123 0.437934 0.434489 0.445234 0.443281 0.450405 0.448423 0.443281 0.440855 0.448423 0.445961 0.450405 0.448423 0.452128 0.450136 0.448423 0.445961 0.450136 0.447663 0.440855 0.437934 0.445961 0.442998 0.437934 0.434489 0.442998 0.439503 0.445961 0.442998 0.447663 0.444685 0.442998 0.439503 0.444685 0.441173 0.333381 0.33049 0.358804 0.355645 0.33049 0.327167 0.355645 0.352014 0.358804 0.355645 0.380759 0.377362 0.355645 0.352014 0.377362 0.37346 0.327167 0.323381 0.352014 0.347878 0.323381 0.319094 0.347878 0.343195 0.352014 0.347878 0.37346 0.369014 0.347878 0.343195 0.369014 0.363981 0.380759 0.377362 0.399279 0.395678 0.377362 0.37346 0.395678 0.391541 0.399279 0.395678 0.414393 0.410622 0.395678 0.391541 0.410622 0.40629 0.37346 0.369014 0.391541 0.386828 0.369014 0.363981 0.386828 0.381494 0.391541 0.386828 0.40629 0.401355 0.386828 0.381494 0.401355 0.395771 0.319094 0.314264 0.343195 0.33792 0.314264 0.308843 0.33792 0.332001 0.343195 0.33792 0.363981 0.358312 0.33792 0.332001 0.358312 0.351953 0.308843 0.302778 0.332001 0.325381 0.302778 0.296009 0.325381 0.317994 0.332001 0.325381 0.351953 0.344842 0.325381 0.317994 0.344842 0.336909 0.363981 0.358312 0.381494 0.375487 0.358312 0.351953 0.375487 0.368749 0.381494 0.375487 0.395771 0.389483 0.375487 0.368749 0.389483 0.382431 0.351953 0.344842 0.368749 0.361215 0.344842 0.336909 0.361215 0.352814 0.368749 0.361215 0.382431 0.374548 0.361215 0.352814 0.374548 0.365759 0.414393 0.410622 0.426123 0.422219 0.410622 0.40629 0.422219 0.417733 0.426123 0.422219 0.434489 0.430488 0.422219 0.417733 0.430488 0.425892 0.40629 0.401355 0.417733 0.412625 0.401355 0.395771 0.412625 0.406843 0.417733 0.412625 0.425892 0.420658 0.412625 0.406843 0.420658 0.414735 0.434489 0.430488 0.439503 0.435444 0.430488 0.425892 0.435444 0.430781 0.439503 0.435444 0.441173 0.437095 0.435444 0.430781 0.437095 0.43241 0.425892 0.420658 0.430781 0.425471 0.420658 0.414735 0.425471 0.419463 0.430781 0.425471 0.43241 0.427075 0.425471 0.419463 0.427075 0.421037 0.395771 0.389483 0.406843 0.400334 0.389483 0.382431 0.400334 0.393036 0.406843 0.400334 0.414735 0.408067 0.400334 0.393036 0.408067 0.40059 0.382431 0.374548 0.393036 0.384878 0.374548 0.365759 0.384878 0.375784 0.393036 0.384878 0.40059 0.392235 0.384878 0.375784 0.392235 0.382922 0.414735 0.408067 0.419463 0.412699 0.408067 0.40059 0.412699 0.405115 0.419463 0.412699 0.421037 0.414241 0.412699 0.405115 0.414241 0.406622 0.40059 0.392235 0.405115 0.39664 0.392235 0.382922 0.39664 0.387195 0.405115 0.39664 0.406622 0.398108 0.39664 0.387195 0.398108 0.388618 0 0 0.0495646 0.0485077 0 0 0.0485077 0.0473291 0.0495646 0.0485077 0.0953326 0.0932303 0.0485077 0.0473291 0.0932303 0.0908862 0 0 0.0473291 0.0460154 0 0 0.0460154 0.0445513 0.0473291 0.0460154 0.0908862 0.0882741 0.0460154 0.0445513 0.0882741 0.0853636 0.0953326 0.0932303 0.137412 0.134287 0.0932303 0.0908862 0.134287 0.130804 0.137412 0.134287 0.175909 0.171795 0.134287 0.130804 0.171795 0.167211 0.0908862 0.0882741 0.130804 0.126923 0.0882741 0.0853636 0.126923 0.122601 0.130804 0.126923 0.167211 0.162106 0.126923 0.122601 0.162106 0.156423 0 0 0.0445513 0.0429189 0 0 0.0429189 0.0410973 0.0445513 0.0429189 0.0853636 0.0821195 0.0429189 0.0410973 0.0821195 0.0785008 0 0 0.0410973 0.0390616 0 0 0.0390616 0.0367817 0.0410973 0.0390616 0.0785008 0.0744588 0.0390616 0.0367817 0.0744588 0.0699352 0.0853636 0.0821195 0.122601 0.117786 0.0821195 0.0785008 0.117786 0.112418 0.122601 0.117786 0.156423 0.150096 0.117786 0.112418 0.150096 0.143048 0.0785008 0.0744588 0.112418 0.106427 0.0744588 0.0699352 0.106427 0.0997297 0.112418 0.106427 0.143048 0.13519 0.106427 0.0997297 0.13519 0.126418 0.175909 0.171795 0.210923 0.205865 0.171795 0.167211 0.205865 0.20023 0.210923 0.205865 0.242553 0.236602 0.205865 0.20023 0.236602 0.229977 0.167211 0.162106 0.20023 0.193957 0.162106 0.156423 0.193957 0.186979 0.20023 0.193957 0.229977 0.222606 0.193957 0.186979 0.222606 0.21441 0.242553 0.236602 0.270887 0.264106 0.236602 0.229977 0.264106 0.25656 0.270887 0.264106 0.296009 0.288467 0.264106 0.25656 0.288467 0.280077 0.229977 0.222606 0.25656 0.248169 0.222606 0.21441 0.248169 0.238846 0.25656 0.248169 0.280077 0.270754 0.248169 0.238846 0.270754 0.260403 0.156423 0.150096 0.186979 0.179215 0.150096 0.143048 0.179215 0.170576 0.186979 0.179215 0.21441 0.2053 0.179215 0.170576 0.2053 0.195173 0.143048 0.13519 0.170576 0.160955 0.13519 0.126418 0.160955 0.150232 0.170576 0.160955 0.195173 0.18391 0.160955 0.150232 0.18391 0.171377 0.21441 0.2053 0.238846 0.228491 0.2053 0.195173 0.228491 0.216993 0.238846 0.228491 0.260403 0.248915 0.228491 0.216993 0.248915 0.236172 0.195173 0.18391 0.216993 0.204222 0.18391 0.171377 0.204222 0.190035 0.216993 0.204222 0.236172 0.222038 0.204222 0.190035 0.222038 0.206361 0 0 0.0367817 0.0342208 0 0 0.0342208 0.031332 0.0367817 0.0342208 0.0699352 0.0648587 0.0342208 0.031332 0.0648587 0.0591399 0 0 0.031332 0.0280543 0 0 0.0280543 0.0243037 0.031332 0.0280543 0.0591399 0.0526638 0.0280543 0.0243037 0.0526638 0.0452759 0.0699352 0.0648587 0.0997297 0.0922245 0.0648587 0.0591399 0.0922245 0.0837869 0.0997297 0.0922245 0.126418 0.116606 0.0922245 0.0837869 0.116606 0.105603 0.0591399 0.0526638 0.0837869 0.0742597 0.0526638 0.0452759 0.0742597 0.063439 0.0837869 0.0742597 0.105603 0.0932213 0.0742597 0.063439 0.0932213 0.0792297 0 0 0.0243037 0.0199576 0 0 0.0199576 0.0148185 0.0243037 0.0199576 0.0452759 0.0367589 0.0199576 0.0148185 0.0367589 0.0267851 0 0 0.0148185 0.00851665 0 0 0.00851665 0 0.0148185 0.00851665 0.0267851 0.0148109 0.00851665 0 0.0148109 0 0.0452759 0.0367589 0.063439 0.0510518 0.0367589 0.0267851 0.0510518 0.0367208 0.063439 0.0510518 0.0792297 0.0633323 0.0510518 0.0367208 0.0633323 0.0451539 0.0267851 0.0148109 0.0367208 0.0199271 0.0148109 0 0.0199271 0 0.0367208 0.0199271 0.0451539 0.0242274 0.0199271 0 0.0242274 0 0.126418 0.116606 0.150232 0.138262 0.116606 0.105603 0.138262 0.124875 0.150232 0.138262 0.171377 0.157417 0.138262 0.124875 0.157417 0.141847 0.105603 0.0932213 0.124875 0.109867 0.0932213 0.0792297 0.109867 0.0929926 0.124875 0.109867 0.141847 0.124455 0.109867 0.0929926 0.124455 0.104993 0.171377 0.157417 0.190035 0.174265 0.157417 0.141847 0.174265 0.156724 0.190035 0.174265 0.206361 0.188969 0.174265 0.156724 0.188969 0.169671 0.141847 0.124455 0.156724 0.137195 0.124455 0.104993 0.137195 0.115432 0.156724 0.137195 0.169671 0.148251 0.137195 0.115432 0.148251 0.124467 0.0792297 0.0633323 0.0929926 0.0739548 0.0633323 0.0451539 0.0739548 0.0523969 0.0929926 0.0739548 0.104993 0.0831694 0.0739548 0.0523969 0.0831694 0.0586519 0.0451539 0.0242274 0.0523969 0.0279018 0.0242274 0 0.0279018 0 0.0523969 0.0279018 0.0586519 0.0310651 0.0279018 0 0.0310651 0 0.104993 0.0831694 0.115432 0.091157 0.0831694 0.0586519 0.091157 0.0640579 0.115432 0.091157 0.124467 0.098052 0.091157 0.0640579 0.098052 0.0687147 0.0586519 0.0310651 0.0640579 0.0337937 0.0310651 0 0.0337937 0 0.0640579 0.0337937 0.0687147 0.0361408 0.0337937 0 0.0361408 0 0.296009 0.288467 0.317994 0.309766 0.288467 0.280077 0.309766 0.300618 0.317994 0.309766 0.336909 0.328078 0.309766 0.300618 0.328078 0.318262 0.280077 0.270754 0.300618 0.290458 0.270754 0.260403 0.290458 0.279184 0.300618 0.290458 0.318262 0.307365 0.290458 0.279184 0.307365 0.295282 0.336909 0.328078 0.352814 0.343464 0.328078 0.318262 0.343464 0.333075 0.352814 0.343464 0.365759 0.355979 0.343464 0.333075 0.355979 0.345118 0.318262 0.307365 0.333075 0.321549 0.307365 0.295282 0.321549 0.308774 0.333075 0.321549 0.345118 0.333071 0.321549 0.308774 0.333071 0.319725 0.260403 0.248915 0.279184 0.266684 0.248915 0.236172 0.266684 0.252831 0.279184 0.266684 0.295282 0.281895 0.266684 0.252831 0.281895 0.267072 0.236172 0.222038 0.252831 0.237484 0.222038 0.206361 0.237484 0.220488 0.252831 0.237484 0.267072 0.250669 0.237484 0.220488 0.250669 0.232526 0.295282 0.281895 0.308774 0.29463 0.281895 0.267072 0.29463 0.278981 0.308774 0.29463 0.319725 0.304958 0.29463 0.278981 0.304958 0.288631 0.267072 0.250669 0.278981 0.261682 0.250669 0.232526 0.261682 0.242569 0.278981 0.261682 0.288631 0.270596 0.261682 0.242569 0.270596 0.25069 0.365759 0.355979 0.375784 0.365668 0.355979 0.345118 0.365668 0.354435 0.375784 0.365668 0.382922 0.372564 0.365668 0.354435 0.372564 0.361064 0.345118 0.333071 0.354435 0.34198 0.333071 0.319725 0.34198 0.328189 0.354435 0.34198 0.361064 0.348317 0.34198 0.328189 0.348317 0.334206 0.382922 0.372564 0.387195 0.376691 0.372564 0.361064 0.376691 0.365031 0.387195 0.376691 0.388618 0.378066 0.376691 0.365031 0.378066 0.366352 0.361064 0.348317 0.365031 0.352108 0.348317 0.334206 0.352108 0.337804 0.365031 0.352108 0.366352 0.35337 0.352108 0.337804 0.35337 0.339002 0.319725 0.304958 0.328189 0.312934 0.304958 0.288631 0.312934 0.296079 0.328189 0.312934 0.334206 0.318602 0.312934 0.296079 0.318602 0.301367 0.288631 0.270596 0.296079 0.277471 0.270596 0.25069 0.277471 0.256947 0.296079 0.277471 0.301367 0.28235 0.277471 0.256947 0.28235 0.261386 0.334206 0.318602 0.337804 0.321991 0.318602 0.301367 0.321991 0.304529 0.337804 0.321991 0.339002 0.323118 0.321991 0.304529 0.323118 0.30558 0.301367 0.28235 0.304529 0.285265 0.28235 0.261386 0.285265 0.264037 0.304529 0.285265 0.30558 0.286235 0.285265 0.264037 0.286235 0.264919 0.206361 0.188969 0.220488 0.201666 0.188969 0.169671 0.201666 0.180827 0.220488 0.201666 0.232526 0.212468 0.201666 0.180827 0.212468 0.190301 0.169671 0.148251 0.180827 0.157755 0.148251 0.124467 0.157755 0.132217 0.180827 0.157755 0.190301 0.165813 0.157755 0.132217 0.165813 0.138777 0.232526 0.212468 0.242569 0.221466 0.212468 0.190301 0.221466 0.198182 0.242569 0.221466 0.25069 0.228735 0.221466 0.198182 0.228735 0.204542 0.190301 0.165813 0.198182 0.172508 0.165813 0.138777 0.172508 0.144221 0.198182 0.172508 0.204542 0.177905 0.172508 0.144221 0.177905 0.148605 0.124467 0.098052 0.132217 0.103956 0.098052 0.0687147 0.103956 0.0726961 0.132217 0.103956 0.138777 0.108946 0.103956 0.0726961 0.108946 0.0760576 0.0687147 0.0361408 0.0726961 0.0381456 0.0361408 0 0.0381456 0 0.0726961 0.0381456 0.0760576 0.0398372 0.0381456 0 0.0398372 0 0.138777 0.108946 0.144221 0.113082 0.108946 0.0760576 0.113082 0.0788419 0.144221 0.113082 0.148605 0.116411 0.113082 0.0788419 0.116411 0.081081 0.0760576 0.0398372 0.0788419 0.0412375 0.0398372 0 0.0412375 0 0.0788419 0.0412375 0.081081 0.0423632 0.0412375 0 0.0423632 0 0.25069 0.228735 0.256947 0.234332 0.228735 0.204542 0.234332 0.209435 0.256947 0.234332 0.261386 0.2383 0.234332 0.209435 0.2383 0.212902 0.204542 0.177905 0.209435 0.182054 0.177905 0.148605 0.182054 0.151973 0.209435 0.182054 0.212902 0.184992 0.182054 0.151973 0.184992 0.154357 0.261386 0.2383 0.264037 0.240669 0.2383 0.212902 0.240669 0.214971 0.264037 0.240669 0.264919 0.241456 0.240669 0.214971 0.241456 0.215659 0.212902 0.184992 0.214971 0.186745 0.184992 0.154357 0.186745 0.155779 0.214971 0.186745 0.215659 0.187327 0.186745 0.155779 0.187327 0.156252 0.148605 0.116411 0.151973 0.118967 0.116411 0.081081 0.118967 0.0827995 0.151973 0.118967 0.154357 0.120775 0.118967 0.0827995 0.120775 0.0840151 0.081081 0.0423632 0.0827995 0.0432269 0.0423632 0 0.0432269 0 0.0827995 0.0432269 0.0840151 0.0438377 0.0432269 0 0.0438377 0 0.154357 0.120775 0.155779 0.121854 0.120775 0.0840151 0.121854 0.0847397 0.155779 0.121854 0.156252 0.122212 0.121854 0.0847397 0.122212 0.0849805 0.0840151 0.0438377 0.0847397 0.0442018 0.0438377 0 0.0442018 0 0.0847397 0.0442018 0.0849805 0.0443228 0.0442018 0 0.0443228 0 0.455599 0.455385 0.45386 0.453646 0.455385 0.454739 0.453646 0.453004 0.45386 0.453646 0.448639 0.448429 0.453646 0.453004 0.448429 0.447796 0.454739 0.453657 0.453004 0.451927 0.453657 0.452128 0.451927 0.450405 0.453004 0.451927 0.447796 0.446735 0.451927 0.450405 0.446735 0.445234 0.448639 0.448429 0.439932 0.439727 0.448429 0.447796 0.439727 0.439109 0.439932 0.439727 0.427727 0.427529 0.439727 0.439109 0.427529 0.426933 0.447796 0.446735 0.439109 0.438073 0.446735 0.445234 0.438073 0.436609 0.439109 0.438073 0.426933 0.425933 0.438073 0.436609 0.425933 0.424519 0.452128 0.450136 0.450405 0.448423 0.450136 0.447663 0.448423 0.445961 0.450405 0.448423 0.445234 0.443281 0.448423 0.445961 0.443281 0.440855 0.447663 0.444685 0.445961 0.442998 0.444685 0.441173 0.442998 0.439503 0.445961 0.442998 0.440855 0.437934 0.442998 0.439503 0.437934 0.434489 0.445234 0.443281 0.436609 0.434703 0.443281 0.440855 0.434703 0.432336 0.436609 0.434703 0.424519 0.422678 0.434703 0.432336 0.422678 0.420392 0.440855 0.437934 0.432336 0.429485 0.437934 0.434489 0.429485 0.426123 0.432336 0.429485 0.420392 0.417639 0.429485 0.426123 0.417639 0.414393 0.427727 0.427529 0.412011 0.411822 0.427529 0.426933 0.411822 0.411253 0.412011 0.411822 0.392767 0.392588 0.411822 0.411253 0.392588 0.392051 0.426933 0.425933 0.411253 0.410298 0.425933 0.424519 0.410298 0.408948 0.411253 0.410298 0.392051 0.391151 0.410298 0.408948 0.391151 0.389878 0.392767 0.392588 0.369971 0.369805 0.392588 0.392051 0.369805 0.369306 0.369971 0.369805 0.3436 0.343448 0.369805 0.369306 0.343448 0.342991 0.392051 0.391151 0.369306 0.368468 0.391151 0.389878 0.368468 0.367285 0.369306 0.368468 0.342991 0.342225 0.368468 0.367285 0.342225 0.341142 0.424519 0.422678 0.408948 0.40719 0.422678 0.420392 0.40719 0.405008 0.408948 0.40719 0.389878 0.38822 0.40719 0.405008 0.38822 0.386162 0.420392 0.417639 0.405008 0.402379 0.417639 0.414393 0.402379 0.399279 0.405008 0.402379 0.386162 0.383683 0.402379 0.399279 0.383683 0.380